5
	Energy:       0.5482616
C         -7.61504        1.03287        0.78756
C         -6.92271        0.63534        2.04815
O         -6.12131        1.39707        2.56262
O         -7.17576       -0.55818        2.62250
H         -7.80699       -1.18032        2.23440
