7
	Energy:       0.5947004
C         -7.50026        1.15261        0.74863
C         -6.88456        0.74104        2.04353
O         -6.07370        1.47559        2.58392
C         -7.25275       -0.56108        2.68204
H         -7.99877       -1.10594        2.06534
H         -7.68735       -0.37415        3.68639
H         -6.34658       -1.19360        2.78843
