4
	Energy:       0.0048280
C         -7.52318        0.99525        0.85737
C         -6.85795        0.67482        2.15040
O         -6.05275        1.45415        2.63140
H         -7.08950       -0.25156        2.66435
