10
	Energy:       7.6063230
C         -6.60778       -0.64538       -0.13692
N         -6.46874        0.69348        0.42663
C         -5.17832        1.25289        0.01089
H         -5.10147        1.31752       -1.09826
H         -4.34852        0.61962        0.39354
H         -5.04636        2.26890        0.44160
C         -7.57318        1.52958       -0.05519
H         -8.54522        1.10288        0.27511
H         -7.57095        1.60565       -1.16625
H         -7.49501        2.55061        0.37672
