6
	Energy:       5.6302689
C         -6.85593       -0.60234       -0.10389
O         -6.72434        0.52592        0.71551
C         -5.65712        1.28190        0.20488
H         -5.53330        2.18353        0.83949
H         -5.87039        1.63856       -0.82855
H         -4.69901        0.71594        0.25372
