12
	Energy:       5.5262253
C         -7.99503        0.81716        0.86051
C         -7.10252        0.56836        2.03449
C         -5.75651        0.65736        1.97447
H         -7.58844        0.30470        2.96913
C         -5.01204        1.01821        0.71248
C         -4.92761        0.39142        3.20230
H         -5.54990        0.13329        4.08566
H         -4.33129        1.29550        3.44678
H         -4.23541       -0.45353        3.00323
H         -5.67793        1.20163       -0.15471
H         -4.32121        0.19074        0.44681
H         -4.41702        1.93852        0.89005
