4
	Energy: 172175922228997070000000000000000000000000000000000000000000000000000000000000000000000000000000000000000000000000000000000000000000000000000000000000000000000000000000000000000000000000000000000000000000000000000000000000000000000000000000000000000000000000000.0000000
C         -6.09148        1.15323       -0.50061
C         -4.80412        1.39493        0.25866
C         -3.31354        1.75269        1.10123
H         -2.46651        1.95599        1.58003
