12
	Energy:      11.0197987
C         -4.76304       -0.22695       -0.00007
C         -3.42541        0.42932        0.00019
C         -3.32917        1.82720       -0.00013
C         -2.07259        2.44218        0.00012
H         -4.22335        2.43846       -0.00057
C         -0.91140        1.66274        0.00069
C         -1.00560        0.26739        0.00102
C         -2.26098       -0.35003        0.00077
H         -1.99891        3.52203       -0.00013
H          0.06030        2.13945        0.00089
H         -2.32476       -1.43130        0.00102
H         -0.10650       -0.33520        0.00146
