4
	Energy:       0.0048280
C         -5.90855        1.51841       -0.07748
C         -4.47286        1.12355       -0.07447
O         -4.04896        0.35909       -0.92476
H         -3.80423        1.51577        0.68384
