6
	Energy:       5.6302689
C         -5.76157        1.63040        0.05983
O         -4.53566        0.95697       -0.01331
C         -3.67066        1.57848        0.90140
H         -2.69017        1.06078        0.86132
H         -4.04674        1.48205        1.94540
H         -3.48775        2.64270        0.62817
